<?xml version="1.0" encoding="UTF-8"?>

<!-- generated on 03/14/21 20:23:53 by Eclipse SUMO GUI Version 1.8.0
<configuration xmlns:xsi="http://www.w3.org/2001/XMLSchema-instance" xsi:noNamespaceSchemaLocation="http://sumo.dlr.de/xsd/sumoConfiguration.xsd">

    <input>
        <net-file value="my_net.net.xml"/>
        <route-files value="my_route.rou.xml"/>
        <additional-files value="my_add.add.xml"/>
    </input>

    <output>
        <tripinfo-output value="tripinfo.xml"/>
    </output>

    <time>
        <begin value="0"/>
        <end value="20000"/>
    </time>

    <traci_server>
        <remote-port value="10353"/>
    </traci_server>

</configuration>
-->

<tripinfos xmlns:xsi="http://www.w3.org/2001/XMLSchema-instance" xsi:noNamespaceSchemaLocation="http://sumo.dlr.de/xsd/tripinfo_file.xsd">
    <tripinfo id="ev_0" depart="36.00" departLane="1to2_0" departPos="7.10" departSpeed="0.00" departDelay="3.00" arrival="177.00" arrivalLane="1to5_0" arrivalPos="326.38" arrivalSpeed="17.29" duration="141.00" routeLength="2248.70" waitingTime="0.00" waitingCount="0" stopTime="0.00" timeLoss="26.64" rerouteNo="3" devices="tripinfo_ev_0" vType="ev" speedFactor="2.00" vaporized=""/>
    <tripinfo id="1" depart="3.00" departLane="1to2_0" departPos="5.10" departSpeed="0.00" departDelay="0.00" arrival="282.00" arrivalLane="1to5_0" arrivalPos="326.38" arrivalSpeed="9.74" duration="279.00" routeLength="2245.54" waitingTime="0.00" waitingCount="0" stopTime="0.00" timeLoss="51.89" rerouteNo="3" devices="tripinfo_1" vType="car" speedFactor="0.94" vaporized=""/><</tripinfos>
